# vtk DataFile Version 2.0
Really cool data
ASCII
DATASET POLYDATA
POINTS 8661 float
42.24161 33.616653 87.734085
42.055096 33.6736 88.94264
41.81952 33.478535 89.61587
41.8965 32.712627 90.587456
42.70005 33.33106 87.98591
42.82322 33.348125 88.833626
42.845436 33.07278 89.61837
42.45727 32.671303 90.4133
42.08974 32.058064 91.23135
43.201584 32.98292 88.008316
43.518833 32.578796 88.7137
43.527145 32.159912 89.50261
43.17762 31.965435 90.32555
43.73998 32.10636 88.375336
43.7966 31.683323 89.33134
43.64623 31.486664 90.103676
40.82315 33.74393 87.98478
40.38772 33.10181 89.82458
40.644653 32.931564 90.2218
41.59368 33.62936 86.503204
41.494965 33.688793 87.61056
41.296463 33.804432 88.59645
41.26032 33.449665 89.596886
41.508923 32.759277 90.61066
41.23535 31.981586 91.38344
42.318165 33.22753 86.22832
42.54625 33.302307 87.16618
41.905777 31.709316 91.45912
41.92005 31.107758 91.78608
43.125664 32.487434 86.42085
43.04812 32.81659 87.238525
43.615135 32.206455 88.10617
42.825687 31.1017 91.27916
42.606876 30.255596 91.72817
43.569916 31.825283 86.69669
43.730812 31.65414 87.14448
43.833344 31.64584 88.30112
43.92337 31.012878 89.22922
43.781593 30.820751 90.07953
43.365658 30.580948 90.99558
44.005257 30.388172 88.92213
44.020126 30.21996 89.65714
43.76374 29.92083 90.38795
31.80818 37.541584 91.80313
32.806324 37.781548 89.65745
32.704834 37.668373 90.29638
32.419533 37.522198 91.09133
32.273163 37.183647 91.96645
32.35985 36.754208 92.47739
33.48623 37.417435 89.34454
33.29329 37.45684 90.00875
33.335983 36.90212 91.00957
33.026978 36.61191 91.826744
33.832115 37.133083 89.294685
34.016068 36.698902 90.12097
33.798576 36.347466 90.95928
40.1621 33.89709 85.12477
40.58793 33.756042 86.47571
39.97242 33.471844 87.462036
39.78352 33.1995 88.885735
40.018723 33.24121 89.2367
40.234535 32.51356 90.386894
40.795998 33.573467 84.78119
41.202236 33.43157 85.21416
40.933167 33.675472 86.792274
40.363422 31.790894 91.3536
40.614697 31.09042 91.80407
42.018585 32.799168 85.09363
40.94007 31.012798 91.925026
42.69033 32.30394 85.434746
42.817574 32.520885 85.87937
41.62496 30.217186 92.031425
43.475227 31.412247 86.07206
43.731888 31.369717 86.63836
42.817184 29.723576 91.557465
42.499508 28.631893 92.17803
43.70878 30.791222 86.19546
43.890366 30.577068 86.57951
43.919064 30.659584 87.81894
43.9365 29.672508 88.63116
43.85088 29.257294 89.332634
43.676765 28.89019 90.89076
43.536674 28.663284 91.26378
43.166965 28.3484 91.92528
43.76161 28.167774 90.9722
31.496716 37.667145 90.05113
31.190414 37.614574 91.1216
31.109121 37.333897 92.0006
31.110271 36.822266 92.58893
32.31213 37.646576 88.985245
32.03382 37.7674 89.91942
32.021294 36.982113 92.34181
31.883558 36.388107 92.7353
32.67054 37.279675 88.23476
33.233116 37.455147 88.88232
33.04263 36.22741 92.02373
32.4723 35.901352 92.645966
33.55468 36.857304 88.23351
33.96401 36.717182 88.80042
33.9492 35.865158 90.971825
33.34721 35.728775 91.87569
33.25026 35.406387 92.12763
34.471657 35.628674 88.84475
34.547836 35.36846 89.77821
34.24793 35.090294 90.81867
34.171944 34.84373 91.233
38.218784 34.03167 85.46319
39.154655 33.995255 83.65635
39.015575 34.15139 84.27935
38.856903 33.500362 86.56172
38.70385 32.191906 89.805786
37.89279 31.752934 90.587715
39.80112 33.70835 83.53528
39.922028 33.883446 84.1313
39.909172 33.920494 85.05349
39.092934 32.514732 89.03385
39.21794 32.006477 90.16935
40.38073 33.34921 83.59391
40.91463 33.01256 83.991104
39.715904 30.31852 91.86913
39.70009 29.43708 92.35512
41.320103 32.503048 84.13194
41.669617 32.201694 84.51059
40.712532 29.442749 92.25448
40.274715 28.664803 92.85957
42.427517 31.442532 84.96629
41.33958 28.794556 92.32857
42.641052 30.889812 84.99137
43.1381 30.702065 85.39295
42.484436 28.248028 92.383934
41.916756 28.137657 92.71044
43.53916 30.253048 85.86729
43.768383 29.663368 86.448395
43.70658 29.153782 87.14421
43.62386 28.869682 88.093575
43.155823 27.923477 91.93295
42.29249 26.968243 92.953674
43.85471 27.878632 89.99548
30.322893 37.22298 91.15891
30.190622 37.00435 91.53039
31.248266 37.423164 89.24796
30.792084 37.191307 89.662636
30.348663 37.16755 90.84259
30.241684 36.81065 91.952736
30.443398 36.23201 92.53723
32.098957 37.13074 88.118416
31.764788 37.417698 88.703186
30.888039 35.836956 92.888664
31.137236 35.296944 92.99577
32.653103 36.820232 87.86296
32.352966 35.09106 92.78701
31.72131 34.743023 92.89458
33.557053 36.1527 87.78948
32.688263 34.385277 92.38195
32.158295 34.205433 92.62881
34.50784 34.9969 88.39473
34.14131 34.128403 91.174736
33.359478 34.075035 91.94123
34.56247 34.56879 87.76567
34.827473 33.84356 90.232414
34.500248 34.15623 90.827034
34.95553 33.799637 88.36132
35.100094 33.525185 89.42484
37.033836 33.982025 85.17924
36.012863 31.559307 91.46844
36.01969 31.215565 91.99154
38.188656 34.110798 84.082344
37.350006 34.031357 84.815125
37.452652 33.705166 86.35901
37.507572 32.17823 88.83276
37.00174 31.384003 91.58239
38.614624 33.742382 83.27186
38.738323 34.07572 83.81072
37.66247 31.87119 89.44492
37.701397 30.79691 91.83437
37.920628 30.402683 91.9437
39.48658 33.308483 82.97816
38.380665 30.612873 91.59124
38.155342 29.837875 92.14002
40.156364 32.59103 82.90706
39.207626 29.555141 92.033005
38.761906 28.894554 93.33148
38.862347 28.302597 94.04699
38.87818 27.869194 94.380775
40.561993 32.238792 83.044395
40.949856 31.734135 83.52645
39.690823 28.143509 94.00006
39.29345 27.59481 94.42459
41.383053 31.308079 84.09482
41.809044 31.187508 84.507614
40.215065 27.453815 94.14415
40.016525 27.118073 94.34001
41.8004 27.073513 93.205086
41.28329 27.066246 93.59558
43.051804 29.4286 85.39838
41.98811 26.263222 93.62806
43.530983 28.192715 85.55114
43.87333 28.024708 87.01747
43.978325 27.742493 87.820244
43.13329 25.630123 93.37946
42.727264 24.92418 94.40922
44.303047 27.329422 86.8315
44.291298 27.17978 87.58512
43.768677 25.613049 91.402405
43.8028 25.199814 92.26663
43.65679 25.075428 93.474945
43.478756 24.33942 94.32301
42.985374 24.20776 94.70665
44.470654 24.448772 92.25466
44.35962 24.401531 93.26225
44.18872 23.805595 94.17749
43.823715 23.565948 94.6185
44.869915 23.87872 92.457596
44.94576 23.654774 93.030396
44.710403 23.359913 93.94351
44.377228 23.264492 94.41722
29.88278 36.62829 91.09674
30.740047 36.706333 88.82781
30.317753 36.555656 89.59017
29.879581 36.472816 90.57292
29.748402 36.108555 91.41827
30.041733 35.667934 92.24492
31.452923 36.36366 87.716064
30.94234 36.51058 88.41082
30.178661 34.72795 92.4331
30.610817 34.760498 92.747505
31.86495 35.964134 87.15899
31.546804 33.67563 92.56221
32.4505 35.521305 86.72654
33.411694 34.902542 86.477455
33.55869 35.0928 86.83589
32.613342 32.798756 91.788574
34.623882 34.163155 87.44834
34.12802 32.420124 91.00716
33.686985 32.47091 91.192314
35.458748 33.777504 84.666824
34.92653 33.398746 86.727806
34.46927 32.59567 90.80085
34.182396 31.684105 91.75475
36.17331 33.838 83.770164
36.181454 33.872765 85.169754
36.07153 32.7785 87.481125
36.01097 32.284054 89.625854
35.392998 31.888496 91.13908
35.38177 30.7677 92.31994
37.15969 33.670696 83.41694
35.810635 30.297192 92.45749
38.20369 33.233932 82.76609
37.09148 29.955536 92.24692
38.90069 32.757168 82.56024
39.74094 31.96772 82.54341
37.97719 28.088764 94.0331
38.121376 27.45866 94.423645
39.979706 31.435333 82.64042
40.38827 31.203709 82.971695
38.796623 27.062843 94.57426
40.384686 30.012276 84.16286
41.193928 29.007233 85.15601
40.416595 26.419094 94.21083
41.36733 25.16069 94.41956
41.31666 24.529915 94.60147
43.295826 27.958542 84.84474
43.589455 27.777424 85.6238
41.881832 24.738976 94.615364
42.03455 24.29337 94.76658
43.672123 27.468239 84.96713
44.07778 27.121239 85.505455
43.908573 25.700981 89.02321
42.640392 23.529793 94.83091
44.275673 26.55331 85.759186
44.596886 26.214737 86.63645
44.420708 26.112423 87.405945
44.192345 24.33519 89.39569
43.8226 24.802212 89.64527
44.002098 24.725128 90.96934
43.619133 22.985596 94.77067
44.789055 23.794697 91.240204
45.004898 23.38136 91.53497
44.862305 22.688812 93.873955
44.263096 22.388042 94.444855
45.056007 22.907265 91.112076
45.247723 22.673073 91.63153
45.28038 22.682735 92.48726
44.973206 22.321976 93.6125
44.63024 22.013668 94.00459
29.95478 35.5528 89.3007
29.773087 35.275063 89.77846
29.602596 35.17007 90.922005
29.729053 34.863335 91.664055
30.844715 35.54934 87.326935
30.48162 35.520462 87.8637
29.951014 35.21099 88.90891
29.642242 34.60444 90.77808
29.91679 34.26137 91.62906
31.819096 35.240246 86.415794
31.485905 35.423286 86.6719
30.55857 33.810368 92.23423
32.179047 34.956223 86.12818
31.24737 32.865353 91.74638
32.73723 34.261105 85.56651
32.194942 32.30323 91.95914
33.57222 33.98181 86.03928
33.13591 32.054104 91.682976
32.690704 31.26878 92.177124
35.180977 33.54927 83.81548
34.736298 33.420628 84.590485
34.222805 30.711777 92.54651
35.950363 33.42712 83.055275
35.689606 33.620617 83.499214
36.770348 32.985794 82.641914
34.919422 29.210712 92.60487
37.357445 32.39914 82.31276
35.971558 28.822449 92.39965
38.287693 31.993683 82.31956
36.6584 27.78498 93.23349
37.376152 26.911903 94.36371
40.185825 30.29869 83.357376
39.60116 29.799522 83.615395
39.716133 29.301895 84.64745
38.289658 26.138203 94.56106
40.219734 28.76762 85.00861
38.928642 25.689903 94.52388
39.651028 25.277412 94.19627
39.89572 24.250374 94.21715
42.213554 27.7281 83.84725
42.333076 28.221306 84.22283
40.506912 23.742321 94.53383
42.832306 27.34127 83.8516
43.07251 27.35146 84.02165
41.65279 23.565487 94.81769
43.352947 26.637135 84.14511
43.822098 26.519516 84.92025
42.20481 22.427216 94.976006
43.949875 25.714874 85.20114
44.281487 25.194687 85.971085
43.252003 22.22894 94.92551
42.765 22.028374 94.98432
44.153152 24.35049 86.61571
43.86081 21.592056 94.45952
44.780502 22.874035 89.56118
45.073853 22.619785 90.45117
45.3873 22.01641 91.634705
45.27227 21.858887 92.41294
44.83602 21.390377 93.114525
44.239838 21.348127 93.9871
45.260292 21.716778 90.61705
45.36406 21.705975 91.301285
45.214813 21.327908 92.07031
[...]
POINT_DATA 8661
SCALARS features_00 float 1
LOOKUP_TABLE default
0.49906316 0.57638586 0.57195 0.52563304 0.5251094 0.58542246 0.6293108 0.58364886 0.48301733 0.50401163 0.4962932 0.49368578 0.5470413 0.43950063 0.43124974 0.45744228 0.41100478 0.37916696 0.4136852 0.412856 0.4484236 0.4904105 0.50894016 0.49306875 0.41847908 0.4504246 0.48030114 0.44217557 0.3874606 0.4281251 0.46792376 0.44670984 0.47471398 0.35230985 0.39744267 0.39085758 0.39723894 0.38121974 0.4060406 0.4280833 0.32185555 0.34174484 0.36114785 0.7732769 0.70923734 0.7125839 0.71035504 0.6899357 0.66565394 0.68687344 0.68816984 0.5978427 0.573626 0.6603079 0.60905683 0.5015075 0.40719646 0.33536473 0.28128302 0.29663342 0.33220476 0.3454649 0.4483636 0.42570877 0.36871406 0.33472073 0.24996673 0.41507974 0.27667928 0.39996284 0.42423502 0.26555032 0.37495136 0.37249047 0.31746274 0.20836231 0.33733457 0.31949198 0.3145464 0.23257339 0.23542747 0.31506997 0.29137307 0.23168361 0.27261248 0.7007812 0.79055345 0.86174643 0.8790317 0.68816024 0.7155139 0.7256615 0.7437185 0.63923484 0.6874939 0.54755706 0.6194484 0.62487006 0.6202321 0.43829298 0.4742426 0.4699524 0.47554588 0.44678462 0.3721736 0.35108206 0.33839294 0.50392735 0.45431966 0.21136573 0.08176452 0.10002042 0.51940215 0.4896657 0.40856323 0.12974785 0.16373713 0.51664543 0.47665536 0.021768989 0.024186166 0.42003748 0.37609076 0.1113455 0.13781916 0.3371045 0.15071853 0.2984646 0.302058 0.18191585 0.14602989 0.2821653 0.22519219 0.13438371 0.098923676 0.19742343 0.07289126 0.20587046 0.71896064 0.7628307 0.6110984 0.58092755 0.6729004 0.81625783 0.8745431 0.5706537 0.61923695 0.858078 0.77326 0.55775154 0.5779731 0.6155313 0.5086883 0.39547113 0.4340626 0.3537438 0.24785241 0.26258862 0.27237248 0.2670709 0.27076012 0.17882407 0.23882645 0.33701375 0.11893672 0.12945111 0.44740984 0.37206027 0.17703962 -0.10850963 0.15525912 0.50804144 0.4839868 -0.04383588 0.10232845 0.059175555 0.55690324 0.046247363 0.0047457553 0.5377341 -0.020147266 0.14945212 0.32263023 0.38106608 0.485335 0.42014748 0.28241202 0.3751366 0.35668755 0.31468546 0.27171975 0.3279735 0.07991615 0.118890345 0.17004743 0.16811638 0.22788283 0.14931537 0.08996185 0.35646534 0.40105733 0.25458243 0.17921215 0.17686407 0.33138776 0.45375133 0.49613672 0.4724985 0.36146885 0.49746165 0.5599271 0.55203056 0.432641 0.5339632 0.597721 0.59251267 0.6535156 0.45635885 0.47311664 0.5681063 0.6806376 0.78903383 0.4335432 0.43474472 0.73706925 0.7335261 0.3949223 0.4297376 0.34212667 0.28941903 0.3355934 -0.015383913 0.20279233 -0.043223895 -0.04829187 0.27560592 -0.0022963285 -0.010245204 -0.050157502 0.3598987 0.29558274 -0.27838963 -0.09687209 0.05443637 0.13646378 0.4397466 0.18584894 0.5069376 0.11477518 0.5534078 0.5434363 0.3836553 0.44811732 0.49911714 0.44855767 0.4279561 0.10197403 -0.024307348 0.2684062 0.28922307 0.33343506 0.32242295 0.2816673 0.36232698 0.40571424 0.35625106 0.3496025 -0.006334707 0.49261507 0.3657986 0.34088457 0.24970363 0.11621544 0.08958158 0.21360716 0.5767063 0.31637532 0.379973 0.62215257 0.62202734 0.37598795 0.43491098 0.5228166 0.6256162 0.6306184 0.3326697 0.35779274 0.5563004 0.6770229 0.35005128 0.31896 0.262717 0.45101348 0.6030493 0.31519556 0.33973795 0.6047125 0.28592232 0.08630444 0.20989186 -0.14381257 0.1747149 -0.11232111 -0.14213096 0.28090683 0.17353934 0.08726236 0.3764072 0.33369118 0.42712536 0.15582092 0.41826993 0.09165828 0.4747817 0.3339514 0.50021505 0.30755392 0.077996075 -0.3147996 0.42303306 -0.28660846 0.32879758 0.24929982 0.19269612 0.40786368 0.35445282 0.27460155 0.4343384 0.42459777 0.41931933 0.41271466 0.38250893 0.5461005 0.33877808 0.2871514 0.62502015 0.6098638 0.053697284 0.63820505 0.22230108 0.3402689 0.46685725 0.5549552 0.61189574 0.6194535 0.3992216 0.4554633 0.547657 0.2693808 0.18093821 0.1409683 0.48066443 0.5351174 0.31799862 0.32654512 0.37629282 0.4796869 0.5682281 0.5882548 0.2528157 -0.09820725 0.18751174 0.4238099 0.51389205 0.5545619 0.14408332 0.20846239 -0.119752176 0.071045846 0.23071757 0.3301804 0.42280155 0.10709107 -0.034154393 0.23258334 0.3498902 0.22355321 0.08470416 0.09798951 0.31079605 0.34872335 0.38426137 0.53792906 0.41547233 0.20644659 0.48102176 0.3786904 0.34309414 -0.23041523 0.052291416 0.12734562 0.34494683 0.16198184 0.43256155 0.21003887 0.3722329 0.40055197 0.5117157 0.3204489 0.3204732 0.09833613 0.5472162 0.010293711 -0.019176193 0.568045 0.5725981 0.21596867 0.47889957 0.54163754 0.40830347 0.47112143 0.48230606 0.42040417 0.42301103 0.49553984 0.18754978 0.10364629 0.0087739825 0.32436654 0.45295596 0.5752437 0.59524906 0.3216958 0.27164906 0.23021758 -0.09838895 -0.009789616 0.18014663 0.33649716 0.59562624 0.59288275 0.3209313 0.3326815 0.5551424 0.590099 0.30355382 0.44300738 0.5179723 0.5841377 0.2184008 0.3669936 0.47213483 0.29470384 0.052360564 0.1873425 0.24927676 0.29610598 -0.06974334 -0.06767148 0.26102814 -0.040117636 0.2670135 -0.029577948 0.2771858 0.3949142 0.36270228 -0.4568705 0.35414252 0.18320858 0.20825884 0.04999938 0.39125675 -0.043904297 0.09001544 0.3688739 0.16712952 0.30649278 0.3465117 0.18636759 0.49904937 0.27514824 0.011923764 0.37439147 0.46485212 0.4387365 0.32468623 0.1030027 0.1514164 0.026393935 0.37717643 0.50528055 0.45465285 0.39808893 0.3308756 0.16051048 0.14483976 0.27571774 0.24021778 0.3392285 0.37027162 0.49041846 0.45480457 0.36807457 0.7375699 0.8415148 0.7569202 0.8010832 0.7382706 0.75546515 0.19440924 0.2799758 0.4895391 0.44021675 0.1226221 0.06951019 -0.022270575 -0.07586453 -0.04240778 0.11558748 0.4914625 0.55086994 0.32815117 0.26897135 0.16909437 0.60456204 0.6175293 0.36096328 0.360277 0.613073 0.6290216 0.31165588 0.60456985 0.6280081 0.26485327 0.33834997 0.46699297 0.56911755 0.20693362 0.08329971 0.28863978 0.22423115 -0.11869919 0.21348408 0.19135146 0.19312592 -0.033205345 -0.2251129 0.09034875 -0.08051406 0.15361358 0.20508417 0.10338262 0.5956547 0.5184921 -0.36784902 0.6176983 0.61299634 -0.10327651 -0.2373397 0.27757418 0.111801855 0.028132677 0.20686667 0.21719876 0.22985801 0.35151374 0.3940627 0.46499383 0.20764785 0.2598071 0.55465955 0.043392908 0.18465722 0.2302614 0.5873467 0.55277795 0.3476022 0.2279062 0.6001726 0.68918884 0.8693054 0.86216915 0.6467358 0.6941122 0.77052695 0.8382976 0.6230953 0.6816003 0.7160312 0.73798025 0.6579231 0.69059205 -0.023739213 0.04567968 0.12970734 0.3713052 0.29824442 -0.08542624 -0.12888041 0.0027804263 0.34428895 0.46629763 0.12530656 -0.060426258 0.55426204 0.6050998 0.34080195 0.20827499 0.120458186 0.62971824 0.27630657 0.256778 0.6001072 0.62638855 0.15521869 0.44399077 0.5379619 -0.08383961 0.18914166 0.3529727 -0.029037587 0.0046144277 -0.13941425 -0.31721026 -0.25362843 -0.24732116 0.50140667 0.47290492 0.19189647 0.025295164 0.57042944 0.57184863 0.47246686 0.12164709 0.25889665 0.5972455 0.23067315 -0.13797131 -0.123236164 -0.0020911992 0.25222883 0.6820903 0.7296454 0.72437346 0.40326416 -0.15006173 0.11458565 0.8018375 0.74613243 0.05155389 0.11975362 0.15592231 -0.037651844 0.016349405 0.032024994 0.18747163 0.07592945 0.59983826 0.03652413 0.032093063 0.42911977 0.26362273 0.059369516 0.3909774 0.5085875 0.51655495 0.63166356 0.28945914 0.5139424 0.66348374 0.62955564 0.5223218 0.6858684 0.43606526 0.50898176 0.58093 0.74021465 0.74865794 0.50947756 0.6124673 0.69464123 0.71766496 0.1864329 0.1818951 0.0721053 0.09453709 0.0020052344 -0.074191384 -0.11163138 -0.06528016 0.0027557947 0.18510017 0.21585947 -0.029879846 -0.049385652 0.0050255693 0.1956493 0.39604342 -0.047540426 0.4875596 0.5738951 0.5783875 -0.27635127 0.5008218 0.58972645 0.05602574 0.3939104 0.48640347 -0.15982156 0.17938322 0.3892653 -0.20159362 -0.2355197 0.017803058 -0.27735418 0.024209153 -0.19670948 -0.05519009 -0.0023955926 -0.15966147 0.1237219 -0.20265137 0.47013372 0.30839685 -0.36341894 0.09818229 0.24220602 0.53751945 -0.44441968 0.27900925 0.31201014 0.6299368 0.594365 0.24587663 0.7460457 0.2525116 0.032663256 -0.521399 0.16063744 0.113854006 0.8042548 0.82914984 0.783172 0.5453173 0.32864696 0.14805427 0.3667028 0.8232089 0.74402946 0.59810567 0.08030416 0.08788381 0.11931421 0.3218646 0.05313653 0.07852044 0.08727945 0.080891 0.014497232 0.080258355 0.1957367 -0.01375401 -0.06948667 0.3082019 0.05154535 0.06385597 0.07692954 0.38472393 0.33989334 0.20267151 0.13363567 0.08612195 0.034868702 0.5086353 0.45887607 0.33694395 0.25990665 0.0948031 0.06989067 -0.0696027 0.10399393 0.5408909 0.4797673 0.3982715 0.25604174 0.16909811 0.02293891 0.5037451 0.46322632 0.29623988 0.14021792 0.05631391 0.33606055 0.4951508 0.44541207 0.12124363 0.1290437 0.527072 0.3068263 0.57245266 0.3664427 0.40743506 0.6302935 0.40692535 0.46945593 0.5760997 0.7072473 0.6941462 0.5165608 0.60476637 0.68530893 0.68816686 0.27077553 0.29240966 0.30800045 0.121321365 0.22355618 0.24662489 0.24243423 0.34014106 0.017139286 0.038291782 0.13829716 0.17112462 0.086551696 0.014960436 -0.037861526 -0.09808169 -0.15600705 -0.14011937 -0.018799517 0.37295792 0.082693964 0.079307824 0.3773353 0.3931941 0.32082596 0.054656953 0.49154174 0.37547955 0.34081137 -0.14159982 0.49434072 0.25227073 -0.22969753 0.43343866 0.3033776 0.2001557 0.13584398 0.28749907 0.3104885 0.09098814 0.045006245 -0.0025361143 -0.28176007 0.047150843 0.0164372 -0.1220413 0.0397871 -0.23946786 -0.024999589 0.017041251 -0.12706469 -0.16095799 -0.06428933 -0.15455903 0.39239007 0.31824175 -0.5108874 0.1901711 0.4770661 -0.30599293 0.17457736 0.622193 0.11713319 0.07737416 0.18486398 0.74395144 -0.32988572 0.20905812 0.43315226 0.51169384 0.8033391 0.80437875 0.30240202 -0.51903963 -0.5164994 0.2414785 0.4175822 0.5297268 0.50577193 0.8123822 0.7241336 0.2814267 0.39952618 0.48938623 -0.19264223 0.11039248 0.12951869 0.27296987 0.39851302 0.4248441 -0.12218678 0.056998678 0.059045304 0.22073884 0.3422878 0.399538 0.39490962 0.08698304 0.077456616 0.373658 0.39241648 0.031361837 0.08452669 0.5898308 0.49474323 -0.29570618 0.016443154 -0.041036557 0.6727303 0.5771531 0.45544648 0.4773887 0.5736135 0.68434834 0.6260737 -0.017870307 0.34980762 0.3767188 0.46127713 0.519838 0.6545023 0.62174726 0.53851175 0.22139162 0.3643746 0.405927 0.47768307 0.4049264 0.4040427 0.47973055 0.270442 0.31162333 0.6152209 0.34178415 0.45293868 0.64847016 0.68109214 0.4855447 0.57493067 0.6445528 0.19090548 0.2514497 0.37315562 0.47209525 0.16760215 0.19086121 0.1823705 0.21517712 0.27935314 0.39159435 0.46449786 0.5019902 0.08914641 0.16143039 0.33913335 0.23699392 0.23612124 -0.022537513 0.20448346 0.2792817 0.26345375 0.24564776 -0.015723426 0.31692073 0.32310772 0.2781794 0.15155897 0.00092217326 0.006153494 0.28814512 0.32285967 0.2783669 0.16244787 0.25187808 0.355439 0.33834252 0.3557445 0.1574721 -0.22408168 0.31840667 0.4381324 0.35990176 0.15366198 0.16936085 0.27548942 0.58194554 0.511677 0.40860584 0.3290245 0.101037934 0.053127058 -0.18616603 -0.5419567 0.13907306 0.63746816 0.56675607 0.40335423 0.28346825 -0.48614207 -0.5947846 -0.08775408 0.51293874 0.3648824 0.077022955 -0.038121585 -0.06425584 0.026314326 -0.18555124 -0.043863706 0.0018939041 -0.20829794 0.19063625 0.3454672 0.28634965 0.08351711 0.20936881 0.2501744 0.22740772 0.37668777 0.11736704 0.16660373 0.56033766 0.47307837 0.018885726 0.11636636 0.20870307 0.376141 0.6838349 0.6495365 -0.040573396 0.46405107 0.4586483 0.7621071 0.7257441 0.19542275 -0.20927888 -0.56563175 0.4538849 0.75340694 0.6914863 -0.53653675 -0.54749054 0.4383421 -0.5921458 0.4164676 0.39135572 -0.34274864 -0.061221212 0.13925865 0.21335961 0.38086328 0.37417877 -0.1329221 -0.103905395 -0.0075410344 0.073449284 0.24458194 0.3368662 0.39869267 0.44825453 0.40168798 0.11585808 -0.09704331 -0.20922314 -0.09957611 0.21786623 0.30770296 0.30036926 0.2621439 0.492284 0.64678156 0.57875675 -0.13744463 0.24443491 0.27091894 0.26435307 0.2600914 0.45566428 0.58047134 0.6394168 0.71549344 -0.11475116 0.15421936 0.26043448 0.41646406 0.623371 0.692134 0.6942845 -0.0086854845 0.22611864 0.105342776 0.12509486 0.17572983 0.2995239 0.3609747 0.48546463 0.61443603 0.6601554 0.5881149 0.5151189 0.07144702 0.41210178 0.30772823 0.28125903 0.15520763 0.35661677 0.43940553 0.49748182 0.5322367 0.38327163 0.2363612 0.19525677 0.3379778 0.5350926 0.51585937 0.43582255 0.42097306 0.3693236 0.24420083 0.42224053 0.45630336 0.42487848 0.6371362 0.6218227 0.5359389 0.46915674 0.35346818 0.18342914 0.52722913 0.6388191 0.58389014 0.50456613 0.3978294 0.28410918 0.37154415 0.47874615 0.51065767 0.62537456 0.54278636 0.5095954 0.4584586 0.5491154 0.5726843 0.4761551 0.4967432 0.4409206 0.4108383 0.5000877 0.49781856 0.1876307 0.1817477 0.1398412 0.18125466 0.23677048 0.3460065 0.4890872 0.5312176 0.327384 0.23867548 0.20568717 0.23897466 0.3822024 0.3481401 0.38523713 0.2677228 0.0292397 0.14304546 0.17196488 0.15943441 0.4927403 0.35204813 0.29881412 0.24211869 0.18539914 0.26753625 0.20952347 0.07363255 0.33638793 0.26180154 0.23054953 0.2111285 -0.03624492 -0.20454983 0.16061203 0.25040537 0.23872535 0.03449521 -0.24807705 -0.121646106 0.06271621 0.26189154 0.0985979 0.036776066 -0.111264944 -0.018488392 -0.13666059 0.33396688 0.29254526 0.006330706 -0.20174894 -0.27138665 -0.22853622 0.3888603 0.028417928 -0.11924809 -0.53837574 0.4776436 0.44207066 -0.53987765 -0.45176107 0.019558698 0.5670506 -0.80310655 -0.17346671 0.6352483 -0.096194446 -0.08008835 -0.098008454 0.61539376 0.5388358 0.38183257 0.23995838 -0.10100644 -0.12086645 0.1133021 -0.046829365 -0.11279754 0.22826934 -0.32455656 0.22813478 0.31287944 0.35349056 0.2594878 0.18625064 -0.3660556 -0.17381766 0.11620584 0.17320244 0.31595057 0.2311688 0.27750444 0.15214002 0.34898207 0.19739011 0.3086959 0.5196121 0.3202943 0.34682858 0.6374894 0.6283296 0.56970733 -0.6481251 0.35737273 -0.5878587 0.361594 0.27191013 -0.5869589 0.25474656 -0.1234927 0.27167276 0.25668493 0.2645657 0.26316953 0.2268719 -0.2297673 -0.7565109 -0.10262456 -0.014463708 0.1204644 0.3385747 0.36183488 0.26551497 0.29810083 0.29696462 0.28997806 0.26761746 0.23536718 0.5506076 0.48520613 0.24556439 -0.2620042 -0.5134702 -0.28080595 -0.17082956 -0.17732918 0.08484273 0.30914888 0.030469777 0.156878 0.2689212 0.21901666 0.14862646 0.52977014 0.56135386 0.6495831 -0.24432158 0.08403656 0.62363935 0.6446502 0.70837146 -0.11796057 0.034571588 0.64037895 0.6478058 0.5523635 -0.17040199 0.16365263 0.582024 0.5756711 0.48034513 0.41876176 0.1669969 -0.21012665 0.3670205 0.30792186 0.48056012 0.5136876 0.04893914 0.21690719 0.46855336 0.46577457 0.3602518 0.44525495 0.44610834 0.30825216 0.5020012 0.56795985 0.23985337 0.21782783 0.33394068 0.2730587 0.2854492 0.20914061 0.23725775 0.1632475 0.34497398 0.3171561 0.5765859 0.29214105 0.32348108 0.25050837 0.30561954 0.5369392 0.5245889 0.51021093 0.4263424 0.5128937 0.5411175 0.51500416 0.2579137 0.35431844 0.43089426 0.43452615 0.16613188 0.16297536 0.039027788 0.35752478 0.2870203 0.21131134 0.17311631 0.24504107 0.14880921 0.08629892 0.15943085 0.49813902 0.4950826 0.40132397 0.4010324 0.183527 0.34794688 0.31013685 0.24787861 0.28900105 0.2212911 0.2295132 0.1734447 -0.27540165 -0.061072268 0.14811029 -0.2289396 -0.14433798 0.23580137 0.32350126 0.3467017 -0.007537201 0.26345307 0.29065645 0.41338918 0.37664175 0.19094205 0.45141754 -0.18977593 0.51765764 -0.1257209 0.54320073 0.57405007 -0.123080134 -0.116843745 0.567017 0.48470044 -0.14727622 -0.13387752 0.356794 0.15821803 0.040660456 -0.45430464 -0.13379343 -0.45680675 -0.15776 -0.35775703 -0.3474747 -0.09047581 0.10372486 0.27394542 0.3746459 0.045064725 -0.35061738 0.2559448 0.06542284 0.14461796 0.12615879 0.19938727 0.15916087 0.14326543 0.38434058 0.18751577 0.24165197 -0.62045 0.24383172 0.3050601 -0.30889487 -0.436199 -0.6050659 0.18454948 0.3222421 0.15756325 -0.15025277 -0.2321149 0.16796973 0.12300289 0.12958208 0.21488778 0.37792057 0.44225523 0.22782241 -0.015258357 -0.1067756 -0.32208598 -0.6506294 0.1784246 0.20423362 0.22398672 0.2679416 0.30791795 0.398061 0.14015652 -0.07621467 -0.34185502 -0.090602726 -0.027887898 -0.046951666 0.27054897 0.5631046 0.45536768 -0.3512765 -0.2569535 -0.22597581 0.10427523 0.0033149552 -0.076275654 -0.09095416 0.50429726 0.5827899 0.63878846 0.6296319 -0.034454152 -0.0832417 -0.053603474 0.04634417 0.6160279 0.67876464 0.64625454 -0.23074679 0.6297785 0.44651157 0.35516286 -0.16603225 0.08142846 0.51986307 0.23410285 0.055012245 -0.21896645 0.3316388 0.3928991 0.45339495 0.013868672 -0.19139312 0.4241209 0.3867289 0.37428853 0.3951139 0.09438011 -0.016538084 0.03025785 0.43836424 0.23118776 0.28142986 0.32328022 0.31759885 0.14106071 -0.045602396 -0.002590865 0.38295755 0.21756506 0.2316688 0.26893654 0.37214378 0.31852305 0.19128616 0.45998472 0.3641339 0.4202779 0.46456182 0.52020156 0.50407225 0.37215346 0.37292284 0.36689085 0.4544773 0.18553914 0.31360942 0.34888577 0.40060365 0.36685497 0.22552758 0.098248795 0.12227889 0.5757002 0.5124078 0.44007903 0.29889688 0.14387563 0.1277019 0.026015343 0.5121676 0.46423906 0.14198473 0.3346374 0.3110982 0.14700957 0.18649456 -0.0026013255 0.023517787 0.1544272 0.3130374 -0.064759046 0.3148991 0.36528507 0.21519725 0.15104282 0.07085935 0.3330109 0.47316754 0.608418 0.36678445 0.31961924 0.08923696 0.24213876 0.30890715 0.3048271 0.45035195 0.61916864 0.41378582 -0.11611786 0.49164224 0.46079096 -0.1203102 -0.12116286 0.52327466 -0.08748666 0.53572506 0.54331094 -0.13984478 -0.09886657 0.48923317 0.41278166 0.13276273 -0.47158977 -0.17093445 -0.2188648 -0.17916355 -0.32872048 -0.33919752 -0.1835772 -0.3681776 -0.36172134 -0.19603276 -0.011659902 0.116950855 -0.17229408 -0.15905462 0.037526824 0.09112488 -0.047056753 0.07180138 0.18426287 0.29173476 0.1544653 0.17082283 0.30029562 0.3205615 0.16738977 0.29948848 0.45426708 0.5875019 0.57828254 0.33639693 0.34547848 0.03221739 -0.1623179 -0.061775476 0.14312431 0.2638209 0.41185912 0.51845944 0.5164603 0.2997002 0.43434075 0.34912694 0.20356247 -0.1558074 0.38679293 -0.25900027 -0.23197885 -0.1164269 0.016122818 0.5105567 0.60810834 0.65258014 0.575319 0.49104458 -0.21315223 -0.3012465 -0.28760728 0.029088296 0.03557335 -0.011544786 0.69526386 0.526732 -0.079361424 -0.060582522 0.031061925 -0.21138069 0.61503416 -0.03122884 -0.2511649 0.46660694 0.5197016 -0.01562896 -0.17619301 -0.09983239 -0.058544785 0.42208803 0.030546628 -0.26916072 -0.10349003 0.3099578 0.3519284 0.3626099 0.18818967 -0.1844477 0.17213836 0.35425568 0.35278714 0.25713295 0.30648085 -0.110611394 0.24503113 0.34974706 0.3069757 0.19678634 0.26750928 -0.02850455 0.30951107 0.38435155 0.42522568 0.40261096 0.34753093 0.5299853 0.5025819 0.50326335 0.4453289 0.5823344 0.57628345 0.5694163 0.4685443 0.6176013 0.6143278 0.576844 0.44370794 0.61978483 0.5917833 0.534085 0.49436092 0.6612024 0.72655344 0.74283445 0.3192538 0.40809572 0.5893757 0.6755562 0.6645522 0.26820293 0.3352844 0.32465392 0.26603925 0.18353157 0.23217835 0.31271952 0.5369224 0.58636624 0.5527884 0.50641733 0.24730918 0.14546916 0.11481518 0.27328002 0.2026911 0.095133826 -0.0939312 0.020767808 -0.025876723 0.61686987 0.5763732 0.5899697 0.57625467 -0.26194042 0.44930172 -0.24763995 0.2210821 -0.13603097 0.06449397 0.23088011 0.26800096 0.26833013 0.4853153 0.63636106 0.70669645 0.07665965 0.48500586 0.66731 0.7689572 0.23210429 0.21834613 0.6934848 0.76649916 0.3551966 -0.098265596 0.20051509 0.40080142 0.5580297 0.69370663 0.45321918 0.3854301 -0.1527799 -0.24047734 0.24039151 0.48066556 -0.14819813 -0.21127895 0.51777256 0.524611 -0.17650571 0.50983703 0.0477589 -0.1333297 -0.23851338 -0.2193375 -0.18471351 -0.030675776 0.09374988 0.19861779 -0.5373509 -0.379373 -0.27166477 -0.3825608 -0.22358808 0.013519454 0.17347263 0.2529489 0.22355002 -0.24352777 -0.6366632 -0.45673805 -0.4635591 -0.49654132 -0.31011358 0.24736872 0.29383337 -0.2651195 -0.2970839 -0.23702265 0.2889646 -0.3061552 -0.002040891 0.19347148 -0.058298342 -0.32826018 0.07726388 0.054579914 -0.33529717 0.16448903 -0.038902864 0.18354805 0.22595116 0.034087215 0.08013365 0.2569583 0.31630486 0.5029253 0