# vtk DataFile Version 2.0
Really cool data
ASCII
DATASET POLYDATA
POINTS 7147 float
42.411465 13.886713 87.4636
42.624096 14.207069 87.85554
42.953102 14.497101 88.33273
42.850494 14.338045 86.85311
43.183 14.788839 87.31141
43.449142 15.058207 87.89089
43.636856 15.0952835 87.09002
43.719643 15.258007 87.55657
41.00649 10.9443035 73.33819
40.8549 10.656834 71.747856
40.872314 11.077686 72.35609
41.085674 11.40328 72.89913
41.54551 11.722368 73.813446
42.21993 12.321199 74.27907
41.180412 11.011713 71.317795
41.43754 11.703611 71.68759
41.64478 12.042219 72.43785
42.18496 12.310316 73.302734
42.14746 11.959778 71.39154
42.175804 12.264809 71.981415
46.52947 16.519308 73.04097
46.645683 16.66698 73.34862
46.990963 17.033993 72.56267
47.20611 17.324772 73.195
47.620235 17.728678 72.786316
37.299377 6.7224526 81.427765
37.41987 6.8352475 81.67531
37.435238 6.877213 80.81238
37.776966 7.324677 81.54936
37.94657 7.126327 79.33551
37.99731 7.573028 80.22408
38.332123 8.056988 80.8276
38.904396 8.363602 81.410416
38.52208 7.82112 78.921425
38.551144 8.29287 79.65847
39.01892 8.758305 80.31127
39.364628 8.796734 81.06117
42.185486 12.65292 87.70738
42.314735 13.114685 88.46695
42.923767 13.509459 89.223
38.976288 8.2293625 78.43795
39.180878 8.795328 78.84515
39.656273 9.2492695 79.70394
42.481674 12.92417 86.56156
42.40245 13.527657 87.26222
42.604393 13.94968 88.037544
43.17743 14.313797 88.859474
44.016155 14.288815 89.52011
39.534065 8.575132 77.906334
39.83669 9.202023 78.33221
40.225426 9.564779 79.12769
43.01953 12.934212 85.374664
42.698402 13.3485985 86.21142
43.024204 14.00985 86.35318
43.848812 15.11743 88.211975
44.375473 14.815447 88.99937
40.26117 9.420027 77.98659
40.72949 9.865391 78.872665
43.726776 13.721611 85.23702
43.880753 14.419546 85.90409
44.033104 15.129742 86.714584
44.445873 15.326424 87.67786
44.73561 15.212828 88.421135
44.43631 15.079695 86.32413
40.839386 9.930538 72.926834
41.02233 10.385309 73.51946
41.366096 10.790361 74.22554
41.974346 11.373047 75.34875
42.485565 11.379042 75.89028
41.00506 10.1434555 71.56545
40.7719 10.383554 72.18409
41.889496 11.857628 74.243095
42.20249 12.054106 74.855156
42.575577 11.912849 75.52095
41.3077 10.623194 71.06045
41.742462 11.38833 71.03477
42.862602 12.654516 73.956894
43.159527 12.665392 74.80145
42.291687 11.149414 70.69866
42.229446 11.628601 71.08688
43.044617 12.17712 71.9115
43.314922 12.715437 72.986694
43.684937 12.865244 73.68347
43.95767 12.340353 71.902664
44.25478 12.9827 73.20044
45.77018 14.9256 73.81356
46.328983 15.100464 74.83372
45.92179 14.785717 72.98808
46.159416 15.404013 74.03191
46.590515 15.602703 72.15804
46.443707 16.139698 72.905106
47.184525 16.226995 71.5248
47.15617 16.9027 72.02559
47.47766 17.41391 73.61756
47.887085 17.439371 74.09052
48.657013 17.480541 74.5798
47.809307 16.543724 71.129555
47.977753 17.469513 71.83711
48.20182 17.922352 72.695076
48.62387 18.076609 73.35768
49.38683 18.081263 73.91506
48.502144 16.86318 70.90072
48.808144 17.468609 71.40171
49.23123 17.943766 72.14111
49.255043 18.197582 72.98594
37.057625 5.032018 81.08977
37.080902 5.444484 81.63348
37.4338 5.8989882 82.37944
37.103714 5.40883 80.58763
37.08332 5.9725833 81.34781
37.493073 6.5060506 82.200165
38.15274 6.6893735 82.75708
37.652588 5.5867805 79.27718
37.411777 5.829299 79.785034
38.73623 7.332401 82.5067
38.098927 5.8074865 78.52167
38.016087 7.0376706 79.42416
39.06083 7.9914823 81.97291
42.351868 12.193319 88.498
42.65586 12.23151 89.0155
43.02678 12.503206 89.54004
38.56396 6.607432 78.226746
39.917633 8.655878 81.45623
40.440063 8.683611 81.51962
42.36039 11.8347225 87.20492
42.382744 11.878267 87.91161
42.4416 12.470371 88.76503
43.11051 12.943008 89.504944
39.29028 7.3121715 77.467606
39.21855 7.860149 77.842514
40.39279 9.297312 80.481544
42.94121 11.52532 85.42885
44.25415 13.874203 89.74676
39.89391 7.964152 77.079636
39.830215 8.230545 77.340614
41.31488 9.57469 79.94217
43.068977 12.605991 85.22838
44.92896 14.719553 89.065056
40.402443 8.823692 77.2261
40.883698 9.485891 77.54342
41.36174 9.90555 78.66886
41.840004 9.856932 79.59518
43.93338 12.998989 84.61727
43.893013 13.612934 85.13608
45.43404 15.176609 87.71756
45.52255 14.890724 88.42313
41.534363 9.447052 76.39533
41.701298 9.485554 76.9203
41.946983 10.078583 78.18605
42.10064 10.129864 78.939514
44.674965 13.956158 85.0082
45.038757 14.650585 85.5177
45.680233 15.055254 86.15987
45.91308 15.134468 87.13428
41.308693 8.871826 73.51941
41.860954 10.005762 76.13231
42.05152 10.352249 76.26886
45.955315 14.458651 85.13792
46.338737 14.911701 86.018364
41.32827 8.838419 71.94825
41.05651 9.333672 72.75837
42.870903 11.260893 76.371376
40.17121 6.6342864 66.548416
40.332634 6.871759 67.37078
41.856693 8.922766 71.01103
41.667347 9.013535 71.319565
43.823807 12.082275 76.79488
44.12802 12.319456 76.83078
40.591354 7.026486 66.283134
40.81205 7.4679303 67.07144
42.151363 9.49514 70.68321
44.462795 12.911835 75.54603
44.59739 12.78801 77.03198
45.349316 13.095026 77.56456
41.536606 8.06024 66.303856
41.673126 8.287836 66.61625
44.746758 12.917385 75.363205
45.777508 13.578291 76.550125
42.01754 8.34775 66.01607
43.851524 10.793268 70.34006
44.72025 12.40324 72.3014
44.453644 12.863731 72.78211
44.89256 13.289549 74.22499
45.252632 13.516579 75.008316
46.77672 14.22555 76.028496
45.60297 13.491407 72.43524
47.177742 14.989372 75.64617
46.56751 14.099697 71.87418
45.89432 14.189196 72.672035
47.04116 15.687752 74.68891
47.92555 15.396719 75.7282
46.91375 15.067934 71.576
48.196793 16.246746 75.27434
48.46731 16.560793 75.255585
47.573746 14.684837 70.938515
47.221313 15.415373 71.38366
49.85684 17.183994 75.07369
48.160507 15.552534 70.7048
48.161892 16.120047 70.77535
49.57996 17.687092 74.515816
49.015083 16.481361 70.65142
49.308838 17.128344 71.1549
50.130333 17.739428 72.245514
50.04316 18.094122 72.733284
51.083145 18.509672 74.68033
50.122673 17.851042 72.07043
51.15175 18.683535 73.341644
51.728012 19.17202 73.94978
51.868046 19.10038 72.859604
52.069187 19.35902 73.48862
37.29818 4.340581 81.05883
37.288193 4.666655 81.78283
37.803024 5.195494 82.68146
38.236916 5.6896625 82.99458
37.74581 4.2385125 79.610756
37.34189 4.5871816 80.31548
38.3279 5.987018 83.02262
37.905884 4.838715 78.97039
39.547413 6.8539653 82.756325
38.69446 4.898917 77.89
38.38659 5.564209 78.16416
39.909515 7.6301265 82.22106
40.038834 7.3203454 82.525276
42.71263 10.778824 87.77972
42.790054 10.914469 88.03841
39.08643 5.455733 77.7139
38.792847 6.1770616 77.819336
41.01776 8.357086 81.6734
42.78399 10.413731 86.09242
44.029804 12.066803 89.78296
44.62096 13.02124 90.04209
39.841255 6.1612525 76.94728
39.564598 6.7480817 77.12604
41.109016 8.552017 81.564545
43.091766 10.164242 84.607445
42.872955 10.782423 85.75632
45.16466 13.629219 89.87891
40.172707 7.408376 76.72052
41.625217 9.399843 80.4716
42.387844 9.108698 81.07177
43.7872 10.696138 83.552444
43.466537 11.186546 84.42207
45.864697 14.087971 89.30485
41.063965 7.5387034 76.264626
42.209 9.801916 79.8223
42.930824 9.791407 80.10557
44.326767 11.989521 83.92999
46.720047 14.307716 88.26716
39.32746 4.5113153 68.78737
41.641098 8.0219 75.63625
43.145184 10.252104 78.917465
44.646034 11.618698 83.139206
45.08888 12.557447 83.769684
46.579617 14.921497 87.27465
46.5476 14.60294 87.88449
39.45635 4.83934 67.98782
39.44562 4.9226656 68.368
41.67218 8.261501 73.43451
41.67093 8.7622795 74.45552
43.185905 10.562019 77.34748
43.221382 10.67441 78.12561
45.23505 11.883005 81.52825
45.428223 12.782866 82.19239
45.882645 13.317974 83.30628
46.18857 14.017178 84.583786
46.493847 14.180965 84.90045
47.07512 14.647457 85.69314
47.208805 14.626919 87.16604
39.772377 5.784873 67.06761
39.907944 5.8874598 68.073364
40.34966 6.114654 68.7745
41.641697 8.206842 72.29526
45.907417 12.99581 81.11201
46.0335 13.54216 81.61852
46.517174 13.999134 82.84178
46.82174 14.034544 83.2573
40.13875 5.598912 66.0636
39.88977 5.8905044 66.648415
40.04166 6.391255 67.509384
40.5995 6.9209695 68.199104
42.090496 8.491411 71.26267
44.834373 12.282377 78.07285
45.46656 12.693708 78.50867
46.40799 13.232756 80.66614
46.491074 13.890911 81.6581
47.122124 14.20496 82.34685
40.65409 6.0517163 65.567665
40.67033 6.7305007 65.89445
41.11698 7.4943748 67.217186
42.10154 7.698177 68.73514
42.74568 8.40663 70.6921
46.132362 13.1243305 78.40321
47.429764 14.171511 81.456314
47.534897 14.283701 81.69886
41.29841 6.6938863 65.011505
41.31325 7.1545024 65.31073
42.10517 8.329424 67.755554
43.616108 9.244728 69.656166
46.73292 13.429403 78.05561
41.98075 6.854962 64.54337
42.09385 7.692126 64.984436
42.265377 8.210806 65.45795
42.624233 8.736902 66.084854
42.946453 8.975521 67.59499
43.985203 9.479773 68.08479
43.84112 9.93807 69.404015
43.772552 10.059601 69.73387
44.31449 10.901026 70.85616
47.651947 14.125847 76.53799
42.715755 7.8360257 64.70931
42.994553 8.426546 65.04124
43.254036 9.22304 66.13588
43.54901 9.542217 66.807
44.03409 9.841866 67.525185
44.549637 10.491255 68.265884
44.73625 10.935308 69.45634
45.07687 11.237173 69.92755
46.029823 13.003778 72.11886
47.742348 14.464838 76.19702
43.595276 8.502213 64.78381
44.054024 9.659332 65.593506
44.362453 10.2333145 66.17384
44.94536 10.766357 66.812096
45.30058 11.084829 67.862076
45.61206 11.5319 68.730286
45.75173 11.813164 69.54081
45.76306 12.151289 70.41933
46.35663 12.941475 71.411095
48.07892 15.237478 75.76569
44.762592 10.101755 65.39829
45.0305 10.410429 65.73993
45.386276 10.9576435 66.78381
46.157574 11.547924 67.307014
46.046455 11.645418 67.82163
46.902996 12.376423 68.888084
47.220043 12.99305 70.30042
47.44261 14.142242 71.064156
49.240997 16.130987 75.71855
46.89546 12.214235 68.0489
47.88657 13.484837 70.5967
48.212303 14.051767 70.70646
49.74896 17.003859 75.33618
50.62488 17.115631 76.029945
48.786255 14.871119 70.615585
48.96948 15.54467 70.52264
50.580894 17.501823 75.41371
51.449318 17.920647 76.19701
52.02394 18.10693 76.34289
49.959957 16.111757 70.70055
50.369614 16.165985 70.9096
[...]
POINT_DATA 7147
SCALARS features_00 float 1
LOOKUP_TABLE default
0.627721 0.6471102 0.6747698 0.5910152 0.62885386 0.66419625 0.6284132 0.6565947 0.59270775 0.7105315 0.694427 0.6410315 0.4819506 0.38182902 0.70311904 0.6792989 0.6407338 0.4862416 0.52930343 0.53743446 0.50254333 0.5020883 0.5640074 0.5716983 0.60571396 0.6237434 0.64630014 0.56002104 0.62519944 0.42172736 0.50314486 0.5678579 0.5838307 0.40228295 0.4734835 0.5418507 0.5384389 0.5965431 0.6519866 0.69856775 0.3970882 0.44629586 0.5013588 0.54064405 0.6140685 0.6616578 0.72120106 0.6913455 0.38116902 0.41596973 0.4397211 0.4076013 0.51615816 0.54404867 0.6818019 0.6702082 0.3700037 0.37531978 0.41321528 0.5057869 0.6038606 0.6489111 0.6333513 0.5583145 0.5947602 0.56220084 0.4030149 0.21956888 0.14107092 0.67412984 0.67517555 0.40376174 0.31237692 0.2036151 0.6789712 0.60821724 0.36594766 0.27121332 0.4695183 0.4968769 0.36081433 0.34655058 0.29846847 0.1817517 0.19502807 0.33489013 0.26647317 0.30044934 0.4193134 0.39199382 0.47072792 0.48405024 0.57579446 0.5632256 0.5190111 0.34163722 0.5117583 0.62617964 0.6057091 0.5764458 0.43514606 0.51304185 0.543143 0.4947285 0.5028608 0.6442175 0.6851635 0.7426019 0.5956121 0.6458062 0.71076584 0.7559889 0.4557331 0.5068284 0.6776765 0.37564647 0.42687955 0.5790547 0.5444994 0.52778816 0.5496481 0.33386025 0.47906864 0.42697698 0.47577214 0.49690706 0.58262557 0.61702764 0.30272517 0.3484724 0.44636253 0.3760751 0.64623296 0.29387355 0.329301 0.34055293 0.37410524 0.58791053 0.3075893 0.27035868 0.30105066 0.27628902 0.28515333 0.38466585 0.55197597 0.50210345 0.09165685 0.11389221 0.20128185 0.22835597 0.337559 0.40577602 0.46235085 0.5035955 0.42305893 0.059785284 0.08017371 0.2566381 0.35909188 0.5232761 0.5447947 0.076532274 0.45577374 0.43424433 0.4433704 0.49131095 0.091710284 0.12577993 0.4579252 0.42894262 0.4262787 0.14248487 0.16914552 0.20864078 0.41051227 0.37623245 0.1355541 0.15891625 0.37335217 0.04361145 0.0016491264 0.11372761 0.08719262 0.07853939 0.08962205 -0.08294558 0.13029966 0.11961424 0.14770645 0.32987702 0.13051972 0.27313232 0.1803235 0.1812426 0.22440752 0.33631504 0.2004256 0.34464565 0.42148942 0.2811643 0.41652006 0.46162283 0.36948854 0.36784783 0.38149506 0.36420435 0.38622838 0.5467787 0.47873074 0.5978681 0.6648859 0.750588 0.83393705 0.8287431 0.52800894 0.5824192 0.8103813 0.45540744 0.59986925 0.33520207 0.3457595 0.4805936 0.48578498 0.338597 0.34263542 0.27909088 0.30135906 0.37741625 0.37170112 0.4103041 0.5090615 0.21936008 0.25652897 0.372939 0.37593937 0.38249826 0.4878748 0.2189171 0.3287534 0.30512545 0.27694082 0.30326518 0.37727988 0.11849462 0.2527629 0.21213968 0.17254421 0.2695114 0.5305476 -0.014076471 0.1344663 0.14015648 0.13158332 0.40613103 0.35128415 0.46905407 0.4911323 0.38533163 0.21980935 0.02884435 0.059113085 0.2696953 0.33406293 0.20709431 0.10957685 0.12766021 0.19553769 0.29083896 0.4389971 0.4531421 0.45721462 0.4620827 0.43374044 0.41671085 0.28643924 0.16741018 0.45851052 0.45203817 0.43620273 0.41047835 0.4010681 0.16537511 0.23826063 0.38809848 0.41052237 0.33314407 0.47209704 0.4696088 0.4150654 0.2827422 0.34021983 0.18093863 0.37067488 0.35997525 0.4725979 0.46409014 0.28163844 0.011763141 0.109505564 0.4342113 0.41201705 0.37996382 0.32013428 0.13380377 0.014953837 0.0052506626 0.02558041 0.0037232041 -0.0050881505 0.36797783 0.33848932 0.29532096 0.22025238 0.13283351 0.080165006 0.01566622 -0.0045994576 -0.10009813 0.02562736 0.3067503 0.32004666 0.27789244 0.2281274 0.15981206 0.114594065 0.05757373 -0.084986694 -0.08258259 0.11394669 0.29240522 0.26112944 0.20900787 0.19700712 0.17964551 0.12319485 -0.1582803 0.13005921 0.12659748 0.2019264 0.0032512136 0.14178175 0.18194014 0.29738972 0.25197646 0.31295455 0.27229372 0.48856974 0.6249671 0.2738865 0.24166082 0.4271125 0.5600624 0.28611296 0.59278274 0.66435707 0.30551863 0.36776984 0.52082807 0.7003528 0.74276674 0.44628447 0.5811275 0.71153504 0.70549464 0.8443426 0.81889963 0.5091734 0.5690837 0.70177925 0.46151003 0.500027 0.34450176 0.4414345 0.22828512 0.24778433 0.19889851 0.19274828 0.24033341 0.37245098 0.36689556 0.3625586 0.27022806 0.20998773 0.31265488 0.37421846 0.08785911 0.3129037 0.12777212 0.5554876 0.61622775 0.023394853 0.4652336 0.5251308 0.56762815 0.5916071 0.10361793 0.38480502 0.4836058 0.46081367 0.40213534 0.26818383 0.023591638 0.18861082 0.24548502 0.0049197525 0.066216625 0.290069 0.45563832 0.34781876 0.3435905 -0.052247778 -0.22604126 0.2146382 0.0069175363 0.3692731 0.10485074 0.14596806 0.047602326 0.40253586 0.18820861 0.30511063 0.05309169 -0.1992681 0.2545167 0.22877182 0.3193128 0.24676558 0.42246318 -0.08459894 0.017274227 0.38863683 -0.08022986 0.35640854 0.31283808 0.278418 0.26727766 0.0077242106 0.22334942 0.2661816 0.19495754 0.17917296 0.17926669 0.21382587 0.2653931 0.2501337 0.19951588 0.115184836 0.24232769 0.5561147 0.18966687 0.29237574 0.31482628 0.27933022 0.13921799 0.68487346 0.68455684 0.5531861 0.1819689 0.17440706 0.67533135 0.625891 0.7356235 0.69252586 0.68229365 0.4498993 0.29115593 0.34376952 0.4004839 0.66769934 0.814533 0.8683342 0.8099474 0.61089313 0.5106677 0.42279863 0.4878508 0.607177 0.6991135 0.7182276 0.83148336 0.8456403 0.8125819 0.6693746 0.5764522 0.78741574 0.7785734 0.7039404 0.63551795 0.7057179 0.73834455 0.58271015 0.6216787 0.5512908 0.53459764 0.51159024 0.41678387 0.1730398 0.36306435 0.4447465 0.22478329 0.26602593 0.20511821 0.1748614 0.18015112 0.25637802 0.3006034 0.39305198 0.50546193 0.059124295 0.24948639 0.40043476 0.0007158946 0.15680273 0.14286236 0.10240698 0.391426 0.18909545 0.027468733 0.022574771 0.4748087 0.559719 0.63212526 0.6627491 0.3894304 0.45040333 -0.07889168 -0.06660077 0.0035829246 0.15979569 -0.0046934187 0.29369935 0.33152282 -0.19337873 -0.043948367 0.13739151 0.07683687 0.108480856 0.24050552 0.11991033 0.014828566 0.16756248 -0.0020782389 0.14005144 0.19385752 0.08263706 0.1202621 -0.25782767 -0.005698137 0.13545853 0.26733184 0.21822758 0.13297257 0.286384 -0.16243762 0.20866168 0.26575845 0.25600842 0.2582178 -0.16546531 -0.17394873 0.25885537 0.25455794 -0.21729061 0.2371319 -0.14203224 0.073369905 0.4548393 0.6053796 -0.0024900362 0.13462608 0.2554763 0.057565443 -0.19888481 -0.042732343 0.5954349 0.33870608 0.26547083 0.25754827 0.18707903 0.55998564 0.5081024 0.42133063 0.48883587 0.059905436 0.18797415 0.5033596 0.5534836 0.62218815 0.58883643 0.23241198 0.2938034 0.504902 0.5209162 0.7694581 0.46146217 0.28063685 0.34404963 0.42137998 0.5108565 0.56784445 0.55610406 0.766701 0.7633451 0.5453205 0.38578618 0.7377547 0.7429172 0.7014401 0.62186325 0.6553093 0.5926417 0.34941137 0.3838786 0.37942895 0.36128682 0.36843565 0.15101996 0.17328234 0.21112448 0.33457547 0.45755082 0.5316671 -0.032186553 0.086137354 0.06677304 0.14525194 0.54215753 0.54515874 -0.031903327 0.022819152 0.08570252 0.49592936 0.0015300075 0.08062939 0.30971074 0.41442677 0.34765917 -0.10195694 0.14428179 0.030411437 0.43175033 0.43743774 0.42912886 0.43082392 -0.10607859 0.23436491 -0.12379971 0.14263311 0.06246476 0.08267829 0.18720298 0.1101231 0.11622357 0.084286734 0.09498728 -0.44819075 0.1594889 0.12892032 0.55536205 0.658272 0.052700028 -0.7612587 0.13127361 0.44849885 0.6458181 0.735744 0.699769 -0.09836018 0.0824717 0.10997912 0.21308322 0.5884824 0.6899405 0.76675516 0.7415502 -0.023113845 -0.3436905 -0.14250097 0.09142078 0.6827302 0.72228575 0.7500919 0.0343984 -0.39163655 0.13978243 -0.44778955 0.12854698 -0.24379973 -0.10714443 0.35516065 0.09595665 -0.18298139 0.06626965 -0.25276887 0.35765633 0.49807906 0.32972294 0.32964587 -0.035091907 0.12513742 0.093565926 -0.00087537616 0.41727024 0.46756655 0.45037413 0.3925197 0.10144537 0.059484974 0.04438509 0.4045449 0.5449674 0.034432612 0.21002543 0.22944133 0.38371092 0.43478546 0.6404769 0.053758055 0.2994556 0.36966455 0.43030798 0.4337507 0.42210096 0.618721 0.6185155 0.33378738 0.5978918 0.6336541 0.5760481 0.4210677 0.6018526 0.5456126 0.32807654 0.41563648 0.35308665 0.3075369 0.18437609 0.046127174 0.18412796 0.31183207 0.4648285 0.5578377 0.04501289 -0.070385605 -0.15761685 0.029037602 0.57359403 0.5131634 0.3612698 0.23949566 0.0670957 0.019371092 -0.1928979 -0.060071707 -0.02567866 0.0006057173 -0.010797858 0.3535543 0.047921278 -0.06150853 -0.08212847 0.008079648 0.0054504126 0.17716631 -0.010921672 0.06615786 0.17768951 0.23755993 0.15334707 -0.032908056 0.18870607 0.12547621 0.18005714 -0.043207675 -0.051739335 0.34726205 0.265331 -0.07649932 -0.23809892 -0.29871857 -0.24171501 0.37918472 0.260615 -0.33089957 -0.31943116 0.0055038705 0.3816059 0.3663992 0.25234118 -0.6091293 -0.5660043 0.04333909 0.49670956 0.5525586 0.6122346 -0.008038521 0.018609747 0.0955525 0.28233036 0.33517122 0.65105635 -0.07472946 0.091399655 -0.05415146 0.037803113 0.044694472 0.046151876 0.5829298 0.6960752 0.08795887 0.07918649 0.64806664 0.7063905 0.7279037 0.7131476 -0.08442444 -0.00062327087 0.14576805 0.14953037 0.68977803 0.7000383 -0.030796265 0.08635205 0.08952149 -0.37977555 0.15809321 0.19489405 0.16542864 -0.1117593 -0.47711766 -0.20059228 0.15887189 0.26489437 0.36630157 0.24769908 0.0023197606 0.0075209066 -0.021607433 0.00059784204 0.27209416 0.48235828 0.11027208 0.31415954 0.4803381 0.014057593 0.16666034 0.22168425 0.23549 0.48956692 0.44001272 0.10297416 0.4851132 0.47293335 0.48023647 0.39157906 0.11342496 0.60758585 0.48703256 0.5353395 0.58258355 0.57353956 0.4246391 0.50393766 0.502709 0.46073562 0.44051248 0.43213233 0.43730426 0.32909185 0.33136058 0.50838274 0.46381435 0.36410004 0.33855146 0.32332367 0.31661192 0.20979434 0.49636143 0.40860063 0.3319587 0.3141201 0.25995976 0.40192196 0.41766003 0.35633168 0.29011273 0.23655713 0.20684505 0.3513806 0.32088405 0.28080386 0.34612954 0.32164857 0.38428086 0.36654428 0.02118249 0.22803594 0.51438236 0.4236967 -0.44875297 0.14503478 -0.027266465 -0.022778764 -0.032722883 0.44196567 0.4237638 0.42113352 0.098109625 -0.02087842 0.24812631 0.34573954 -0.23677407 -0.16352673 -0.08267647 0.31344086 0.26438224 0.20290416 0.14728366 -0.3432697 -0.70199627 -0.053922206 -0.04366578 0.34362802 0.31213102 0.20901157 0.087145336 0.014112543 0.08709225 -0.24175978 0.39882725 0.34117812 -0.11190407 -0.31726342 -0.11382331 0.41357857 0.34860146 -0.28136122 -0.4776049 -0.108559534 0.42750913 0.40482163 0.26259798 0.4167753 0.4310756 0.4312767 0.42120403 -0.53183526 0.54827064 0.5414009 0.39603955 -0.10529713 0.5784376 0.5442099 0.19915271 0.12314726 -0.13509913 0.016065806 0.11895482 0.59697914 0.53555846 -0.26874012 0.17357567 0.44879085 0.6983218 0.6732354 -0.12829582 0.16677584 0.52273417 0.6102704 0.6680725 -0.051491756 -0.13702342 0.14635153 0.21257284 0.22676365 0.18090618 0.0830757 0.27705866 -0.2076619 -0.13915081 0.2886192 0.1125565 0.120975435 -0.39428216 0.012738794 0.20198467 -0.09159474 -0.00082570314 0.3502625 0.30095026 -0.21828732 -0.02838485 0.022273853 0.2122845 0.38395196 0.25943765 -0.13121909 -0.03820777 0.1016859 -0.0675354 0.041637123 0.21574208 0.32295218 0.21588427 0.041309256 0.07136563 0.24000244 0.19130689 0.24562973 0.24658251 0.24666968 0.37538612 0.38262454 0.35216826 0.5251639 0.5021038 0.55278385 0.62050635 0.65052253 0.6673275 0.7036558 0.7084372 0.5861387 0.6579557 0.6543217 0.6480776 0.47021914 0.53031164 0.5632808 0.5530495 0.56893647 0.39245775 0.41419554 0.48975015 0.4872414 0.4735201 0.4076293 0.32221317 0.475914 0.50258744 0.19984826 0.46934476 0.41712666 0.41953325 0.08586158 0.09151368 0.07104178 0.37247553 0.35810867 -0.038914457 0.10626237 0.18816155 0.35725263 0.34784096 -0.49190068 -0.316952 -0.13737638 0.039127443 0.19758178 0.19250813 0.2426771 0.34319827 0.40666163 -0.27522886 0.27127707 0.15188025 0.061076205 0.409424 0.044985477 0.0806134 0.18703496 -0.13067365 -0.17180692 -0.1832186 -0.18852645 0.37363112 0.03748555 0.0810862 -0.103953585 0.050223578 0.3368157 0.33262825 0.30340886 0.2552271 -0.026989244 0.42781585 0.38659742 0.33830404 0.31283933 0.25802866 0.17806229 0.14083338 0.20290008 -0.4474666 -0.051070068 0.43904158 0.38355848 0.052037638 0.058929287 -0.069664784 -0.037688553 0.44699654 0.014056876 -0.37819856 -0.5342022 0.43594515 0.03811042 0.4359135 0.28027254 0.48360062 0.4422812 0.5043537 0.51629305 0.44481075 0.4430771 -0.14880969 0.50231475 0.4181382 0.30382216 -0.14966217 -0.23617716 -0.11492153 -0.12174905 -0.06573211 0.53006613 0.4987699 0.08376514 0.027684739 0.14249778 0.19966406 0.5757009 0.04661639 0.36771244 0.5240508 0.5842311 0.112154245 0.16507468 0.29977077 0.12134671 0.123356834 0.42578918 0.39657533 -0.02298589 -0.0060831085 0.3899787 -0.12286059 0.1933646 -0.27582586 -0.20075876 -0.2507712 -0.32854813 -0.21588734 -0.122105405 0.16817325 -0.36077648 -0.24483363 -0.11210819 -0.07694134 0.2431659 -0.24820316 -0.09801818 -0.07929842 -0.12246947 0.017936163 0.123228244 -0.004385557 0.06769354 0.00054032356 0.12532869 0.22431661 0.14477873 0.26228333 0.3237881 0.32168084 0.2599916 0.4542234 0.44087946 0.4697634 0.56284255 0.5677888 0.5686047 0.652573 0.68451405 0.7523949 0.77725613 0.73139447 0.7635822 0.8231752 0.8430153 0.6848961 0.72767603 0.7158523 0.6068905 0.64921 0.68894625 0.6526224 0.39652023 0.5836395 0.22231129 0.5112121 0.4171322 0.430301 0.4193063 0.34859043 0.37794 0.15388933 0.27444366 0.3239165 0.07307104 0.09955442 0.3814964 0.3435762 -0.0184455 -0.050719082 0.43371594 -0.021825135 0.13698687 0.083157375 0.48470297 0.50120276 0.4373901 0.12759447 0.03817761 0.34285647 0.41871488 0.44208205 0.43517005 0.44737756 0.34421983 0.032685004 -0.2034859 -0.230239 -0.055308 0.40136105 0.32802257 -0.21849826 -0.2121685 0.33560893 0.33787155 0.2745366 0.20814109 0.3676868 0.34829342 0.33904815 0.3290859 0.2808789 0.24235237 0.05888462 0.11131245 0.4369658 0.39982772 0.022944793 0.024551913 0.06656782 0.4583005 0.094803356 0.053960003 0.020215273 0.44084552 -0.002553977 0.39568824 0.3779213 0.42710686 0.39034337 0.42382878 0.47478294 0.4390738 0.46547037 0.40882063 -0.37459794 -0.042240754 0.46960345 0.1374898 -0.004153192 -0.07903446 0.057483662 0.19814016 0.443243 -0.14471921 0.2803816 0.44869518 0.48239252 0.0073638186 0.37144554 0.4345265 -0.10372509 0.40599138 0.37856603 0.32482192 -0.16218853 -0.033832762 0.009084284 -0.15063478 -0.061713398 0.029343994 -0.36909914 -0.24608913 -0.2664147 0.07235759 -0.3164733 -0.18449363 -0.056847893 0.01227523 0.1664568 -0.22042838 -0.18383408 0.04555578 0.19654216 0.17781943 0.2987501 0.2435101 0.17873606 0.3141198 0.409616 0.4039707 0.2985083 0.30091566 0.34050536 0.48343793 0.38260683 0.50304925 0.5682741 0.5418566 0.5163481 0.4316839 0.4952582 0.48190767 0.5596175 0.6197574 0.5715053 0.6188437 0.7993643 0.7300174 0.49482974 0.6905453 0.7970626 0.8737525 0.84027785 0.6413177 0.6938157 0.70311487 0.48517996 0.56004703 0.69728476 0.66187775 0.62575495 0.6049144 0.22231622 0.17254521 0.5569098 0.30709362 0.26888463 0.4640167 0.46393728 0.24769731 0.24842267 0.2675145 0.33430865 0.30122098 -0.084156916 0.42069536 0.035151742 0.5255013 0.51484865 -0.096963525 -0.13946219 0.08271718 0.35015684 0.47212023 0.46133518 0.29469386 -0.19752094 -0.19217314 -0.16251028 -0.19623598 -0.11018829 0.47769886 0.16454048 0.44886735 0.42741674 0.36741143 0.36642435 0.29823184 0.2377322 0.18317752 0.019129701 0.31575602 0.40182638 0.14119273 0.00788112 -0.042245194 -0.5052974 0.14901982 0.38554835 0.08045861 0.333439 0.06256643 0.20032285 0.13214177 0.23861533 0.2696188 0.3430913 0.25051707 0.4163556 0.22569066 -0.36298192 -0.5417951 -0.5363326 -0.13241188 0.40844584 -0.16505636 -0.054058455 0.38486072 0.3805474 -0.15222093 -0.08140376 -0.050088126 -0.0575367 0.22668165 0.36769313 0.40446654 -0.047907215 -0.08134952 0.004318349 -0.14409263 0.3205224 -0.22654459 0.31448847 0.16478057 -0.14933583 0.28253138 0.13232881 -0.10932286 0.017127223 -0.06566122 0.036834083 -0.12746653 0.61197305 0.6130408 0.10528449 -0.083369784 0.6041409 0.6506239 0.5818316 0.2017555 -0.1143637 -0.14188053 -0.043756925 0.08556177 0.5195994 0.566679 0.48890403 0.28736112 -0.023049664 -0.018795643 0.11898775 0.34536526 0.43671212 0.42075822 0.37700066 0.39645106 0.3799115 0.16339274 0.22389752 0.48294362 0.4195438 0.43462846 0.44964787 0.49281982 0.28788194 0.3215738 0.44703645 0.5312107 0.47424817 0.502227 0.57320404 0.6328267 0.65258527 0.6500352 0.35825878 0.41075265 0.47243226 0.45674604 0.66987836 0.71004117 0.7731613 0.7634512 0.6702246 0.36574122 0.42822176 0.58473796 0.6844369 0.65433234 0.62693083 0.10827331 0.60775477 0.60677284 0.24573585 0.16129747 -0.018959869 0.58102584 0.26807716 0.27421823 0.23843059 0.28693348 0.4115653 0.21906498 0.22387874 0.3363613 0.25439662 0.46610814 0.16809613 0.035173718 0.20082346 0.20825559 0.1452205 0.3746898 0.4118255 0.3937005 0.37757725 0.4120001 0.09298693 0.37542146 0.44641286 -0.11794112 0.44965643 0.45684934 0.33468357 0.28686842 0.22491165 -0.35681355 -0.34899697 0.41406894 0.39539364 0.20844242 0.13799548 0.3676588 0.4138877 -0.38095737 0.2585104 0.3476876 -0.49826208 0.13224775 0.13779703 0.22017488 0.09632261 0.25265864 0.2836244 0.085557 0.36552316 0.06890807 -0.44223946 0.3536144 0.3900758 -0.065392986 -0.36927566 -0.03882102 0.10410836 0.35648817 0.3465987 -0.23628621 -0.081100434 0.31459334 -0.13314489 -0.04110998 -0.14050576 0.14299214 -0.31239477 -0.32146078 0.20594366 -0.2657444 -0.2580598 -0.13287884 -0.17844161 -0.2694456 -0.15985657 -0.02854073 -0.11574815 0.07988738 -0.15834217 -0.16524276 0.5450268 0.5500913 0.43802524 0.31749058 0.14416005 -0.1653874 -0.22210556 0.5191617 0.49031872 0.38421917 0.23436332 -0.13721937 -0.23689523 -0.09307394 0.28072676 0.4200663 0.33284935 0.31962484 0.33063468 -0.2528684 -0.2775777 -0.28604317 -0.16249494 -0.05011699 -0.05816339 -0.19157273 -0.17807692 0.06980569 0.19714145 0.27604592 0.38966143 0.3818004 0.37539542 0.08610196 0.037010953 0.36413822 0.09748726 0.12278143 0.15684593 0.20595248 0.19917487 0.41545516 0.45042017 0.38492793 0.4567023 0.3641876 0.08638976 0.23268554 0.20249899 0.0152531415 0.062910534 0.48027343 0.55703324 0.56865376 0.5157838 0.2346301 0.2804566 0.3398939 0.32080898 0.18224406 0.18661597 0.2589183 0.28382713 0.30416757 0.32261848 0.35266525 0.37603945 0.5232015 0.61805975 0.64544356 0.124853335 0.49083734 0.5930856 0.29866096 0.1676768 0.06677362 -0.033447694 0.4712727 0.5206732 0.3304215 0.3126522 0.4604739 0.3180967 0.12156313 0.30966645 0.21932843 0.10070496 -0.21677941 -0.016498692 0.28206098 0.26248407 0.33916247 0.36873633 0.032962345 0.24960041 0.21805316 0.2989046 0.2968639 0.06862012 0.19947991 0.24337852 0.32682782 0.3814424 -0.46377566 0.28189924 0.31215793 0.45259023 0.3971718 0.3461446 0.24947159 0.14280608 -0.40552694 -0.37533194 0.29610896 0.37649575 0.48210818 0.4806487 -0.028034091 -0.24188593 -0.33901292 0.3057127 0.44273594 -0.31163886 -0.3067933 0.20188746 0.28101343 0.35184717 -0.39071104 0.20303167 0.05400651 0.026834926 -0.07635722 0.09295567 -0.11493899 0.23787998 -0.061281346 0.26550916 -0.091561034 -0.2558125 -0.1232352 0.32125884 -0.22688104 -0.11798703 0.17078304 -0.20338173 -0.03264446 -0.043253914 -0.17959474 -0.11995539 -0.048167024 0.10394822 -0.25485173 -0.16052592 -0.12884516 0.0393496 -0.12691815 -0.2755606 -0.093193956 -0.03466329 -0.3802753 -0.2919567 -0.019224703 -0.025278032 -0.09992459 0.18454424 0.18123785 0.037808508 -0.16349512 -0.21525604 -0.21537635 0.26648054 0.187819 0.1012703 -0.25744444 0.25755775 0.19317651 0.123523325 0.1987785 0.12382349 0.31409913 0.2850752 -0.23846033 -0.26650816 -0.26172453 -0.23369585 0.14150323 0.07516548 0.34800267 0.2865752 0.20993873 0.023319524 -0.17651501 -0.2281645 -0.19341426 0.04711614 0.08810212 0.12984869 0.3457511 0.35580498 -0.06645554 0.05005735 -0.032245748 -0.31496337 -0.018496856 0.020819 0.009769075 0.09254709 0.15766512 0.22680359 0.24827847 -0.028936125 0.048424207 0.16539583 -0.020339467 0.025696881 0.15764596 0.15317306 0.20002893 0.31213653 0.3512695 0.16831008 0.06389178 0.20972124 0.25906205 0.30032122 0.37446788 0.4144732 0.41289943 0.25491607 0.3118135 0.3825898 0.4036371 0.459400